# vtk DataFile Version 4.1
vtk output
ASCII
DATASET POLYDATA
POINTS 1002 float
46.551 97.0336 98.23 48.3586 101.915 109.176 43.9495 103.509 93.5598 
45.422 107.816 103.174 53.1671 102.454 102.416 51.8628 105.752 99.5808 
39.8893 100.258 103.764 38.1325 104.061 100.984 54.186 107.46 109.367 
49.2186 98.6568 91.555 42.1982 105.805 110.417 41.7697 97.5383 93.6869 
46.5245 97.8516 99.068 46.4824 98.6526 100.036 46.5307 99.4074 101.098 
46.6726 100.059 102.303 46.893 100.583 103.579 47.2281 100.98 104.873 
47.6061 101.268 106.176 47.9118 101.52 107.351 48.1442 101.753 108.334 
46.8664 97.5261 98.3254 47.2095 98.1833 98.5302 47.6408 98.9439 98.8395 
48.1679 99.6988 99.2697 48.8575 100.353 99.8197 49.6645 100.949 100.407 
50.4612 101.536 100.961 51.3003 102.01 101.486 52.2378 102.295 101.982 
46.1793 97.1503 98.7035 45.673 97.373 99.294 45.0334 97.7043 99.9365 
44.2691 98.1133 100.576 43.472 98.5904 101.161 42.7156 99.0821 101.672 
41.9593 99.4742 102.17 41.2204 99.7691 102.707 40.5174 100.024 103.255 
46.765 96.4322 97.4753 46.9714 95.8223 96.7028 47.1896 95.3072 95.9191 
47.4309 95.0457 95.1764 47.7061 95.2125 94.5298 48.0322 95.7608 93.9165 
48.4024 96.4624 93.2489 48.7611 97.1786 92.5661 49.0445 97.9076 91.9794 
46.3237 96.2327 97.7588 45.9669 95.4941 97.314 45.5465 95.0961 96.7609 
45.2234 95.1461 96.0671 44.9149 95.4751 95.4082 44.4314 95.959 94.8641 
43.8011 96.4644 94.3993 43.1071 96.8627 94.0228 42.3951 97.1939 93.7883 
49.0424 101.999 108.763 49.7632 102.06 108.242 50.4773 102.106 107.671 
51.0827 102.25 107.048 51.5501 102.479 106.334 51.9642 102.645 105.523 
52.3876 102.67 104.708 52.7638 102.604 103.928 53.0122 102.524 103.15 
47.5375 101.762 108.96 46.6341 101.664 108.552 45.6646 101.529 108.071 
44.664 101.269 107.583 43.6978 101.004 106.993 42.8073 100.861 106.271 
41.9982 100.764 105.536 41.2523 100.612 104.875 40.5471 100.446 104.281 
49.0451 102.076 109.798 49.782 102.353 110.328 50.4373 102.885 110.622 
51.072 103.591 110.698 51.8299 104.277 110.715 52.6151 104.944 110.676 
53.2393 105.649 110.473 53.6669 106.341 110.127 53.9701 106.952 109.744 
48.0163 101.972 109.901 47.5208 102.157 110.551 46.9046 102.455 111.059 
46.1766 102.798 111.424 45.308 103.204 111.641 44.4652 103.732 111.658 
43.7575 104.344 111.485 43.1536 104.943 111.196 42.6193 105.437 110.842 
43.9855 103.939 94.4108 44.0096 104.486 95.3057 44.0679 105.079 96.2439 
44.2373 105.607 97.3198 44.4647 106.081 98.4493 44.6776 106.54 99.4902 
44.8721 106.982 100.467 45.0303 107.38 101.418 45.208 107.65 102.336 
44.5458 103.752 93.6711 45.2383 104.023 93.9172 46.023 104.306 94.3431 
46.9008 104.567 94.9421 47.7908 104.831 95.6694 48.6446 105.079 96.481 
49.4922 105.282 97.3356 50.3314 105.475 98.1543 51.1345 105.645 98.9017 
43.4094 103.528 94.0489 42.8655 103.555 94.6628 42.2818 103.609 95.4118 
41.6498 103.693 96.2411 41.0177 103.758 97.1309 40.4006 103.771 98.0681 
39.7706 103.806 98.9251 39.1478 103.908 99.6444 38.5992 103.996 100.342 
44.2861 103.227 92.792 44.6915 102.89 92.0451 45.1978 102.547 91.3375 
45.9157 102.263 90.6328 46.812 101.901 90.1496 47.5661 101.32 90.1345 
48.1294 100.646 90.4045 48.5871 99.9587 90.7713 48.9719 99.2726 91.1135 
43.5489 103.107 93.013 43.1538 102.598 92.5225 42.7564 102.023 92.1073 
42.2577 101.507 91.7836 41.7808 100.893 91.6763 41.492 100.037 91.8408 
41.3663 99.0906 92.1894 41.3466 98.3112 92.6321 41.4739 97.8027 93.1503 
46.1154 107.854 102.793 46.9044 107.839 102.34 47.7496 107.809 101.86 
48.649 107.724 101.437 49.4844 107.524 101.087 50.1516 107.225 100.747 
50.7097 106.849 100.445 51.1815 106.449 100.169 51.5572 106.08 99.8931 
44.6245 107.633 103.009 43.7435 107.423 102.819 42.827 107.17 102.642 
41.9691 106.796 102.481 41.1286 106.385 102.288 40.3223 105.979 102.041 
39.6269 105.509 101.791 39.0374 105.012 101.544 38.533 104.535 101.269 
46.0626 107.993 103.783 46.8208 108.106 104.476 47.7984 108.074 105.301 
48.9183 108.026 106.161 49.9691 108.066 106.94 51.0004 108.086 107.676 
52.1107 108.078 108.35 53.0677 108.04 108.862 53.7418 107.832 109.188 
45.1783 107.823 103.928 44.9173 107.773 104.781 44.5782 107.698 105.734 
44.1664 107.639 106.718 43.7051 107.574 107.664 43.2356 107.434 108.516 
42.8447 107.158 109.205 42.5681 106.746 109.72 42.3634 106.272 110.113 
53.7764 102.53 102.181 54.2826 102.684 101.81 54.6399 102.957 101.309 
54.7938 103.432 100.769 54.679 104.056 100.399 54.2516 104.625 100.242 
53.6714 105.024 100.111 53.0794 105.331 99.9361 52.4723 105.58 99.7575 
53.9844 102.628 103.291 54.7211 102.897 104.245 55.3141 103.346 105.178 
55.7575 103.894 106.072 56.0483 104.488 106.994 56.1725 105.184 107.897 
56.0246 105.935 108.556 55.5655 106.59 108.923 54.9036 107.105 109.161 
52.7266 102.246 101.457 52.2413 101.931 100.411 51.6946 101.533 99.2484 
51.1294 101.049 98.0114 50.6057 100.505 96.6758 50.0998 99.9844 95.3259 
49.6896 99.4896 94.2121 49.5067 99.0251 93.2425 49.4487 98.7004 92.2785 
52.4051 106.039 100.44 52.9956 106.371 101.321 53.5903 106.714 102.261 
54.1419 107.022 103.3 54.6438 107.323 104.411 55.094 107.607 105.56 
55.36 107.803 106.737 55.2462 107.835 107.878 54.7822 107.692 108.762 
51.6977 105.373 98.7786 51.4535 104.896 97.8782 51.1276 104.325 96.9298 
50.7868 103.707 95.9232 50.4621 102.998 94.8761 50.1001 102.199 93.8865 
49.7941 101.345 92.9629 49.6063 100.403 92.1959 49.4629 99.4509 91.7083 
39.1363 100.258 103.758 38.4093 100.351 103.687 37.7749 100.59 103.558 
37.2684 100.98 103.354 36.9618 101.563 103.006 36.8487 102.312 102.507 
36.9138 103.002 101.95 37.1927 103.479 101.502 37.6386 103.798 101.206 
39.7079 100.587 104.596 39.5751 100.922 105.523 39.547 101.351 106.501 
39.6841 101.882 107.45 39.9291 102.499 108.307 40.2161 103.196 109.04 
40.6107 103.94 109.629 41.0891 104.659 110.05 41.627 105.298 110.303 
39.6388 99.8459 102.974 39.4928 99.3834 102.14 39.4353 98.9662 101.235 
39.4664 98.5567 100.229 39.8008 98.2236 99.0964 40.3705 98.0273 97.8878 
40.87 97.8594 96.6742 41.2915 97.7109 95.54 41.6214 97.6111 94.553 
37.9624 104.448 101.805 37.89 104.868 102.727 37.9552 105.3 103.88 
38.189 105.692 105.248 38.6705 105.945 106.524 39.3655 105.976 107.503 
40.1262 105.881 108.333 40.8433 105.828 109.121 41.5108 105.829 109.837 
38.0852 103.502 100.315 38.1143 102.893 99.5738 38.183 102.27 98.6921 
38.3926 101.552 97.7628 38.7929 100.73 96.9415 39.3417 99.9201 96.2289 
39.9716 99.2076 95.5504 40.5936 98.5527 94.873 41.1558 97.9789 94.228 
53.2771 107.427 109.794 52.2162 107.371 110.255 50.9999 107.293 110.7 
49.646 107.106 111.044 48.2138 106.799 111.205 46.8159 106.514 111.176 
45.5054 106.316 111.054 44.2523 106.164 110.905 43.1216 106.007 110.703 
48.594 98.3621 91.4579 47.7267 98.1051 91.639 46.8958 97.7227 91.7638 
46.1753 97.3227 91.735 45.3272 97.1512 91.8255 44.3281 97.0473 91.9393 
43.3472 96.8983 91.9799 42.582 96.9314 92.2697 42.1136 97.2033 92.909 
46.8731 98.4038 99.276 47.3113 99.0629 99.5712 46.9372 99.224 100.328 
47.8438 99.7617 99.975 47.4848 99.8486 100.725 47.097 99.9526 101.502 
48.507 100.432 100.508 48.1294 100.503 101.244 47.7313 100.564 102.004 
47.3152 100.588 102.793 49.2963 101.039 101.073 48.8988 101.129 101.808 
48.4566 101.208 102.568 48.0246 101.193 103.341 47.6336 101.083 104.124 
50.1145 101.614 101.588 49.7508 101.667 102.32 49.3231 101.732 103.126 
48.8713 101.722 103.928 48.5 101.551 104.727 48.108 101.369 105.493 
50.996 102.112 102.107 50.6628 102.143 102.824 50.2924 102.122 103.67 
49.8786 102.053 104.53 49.5045 101.862 105.332 49.1061 101.658 106.087 
48.5466 101.569 106.772 51.9982 102.409 102.646 51.6944 102.472 103.384 
51.3284 102.46 104.216 50.9427 102.341 105.094 50.5631 102.121 105.895 
50.122 101.909 106.598 49.518 101.836 107.24 48.8187 101.816 107.831 
47.0533 97.0565 97.5271 47.2354 96.6215 96.7195 47.4043 97.865 97.722 
47.4404 96.3499 95.9588 47.5992 97.6116 96.9229 47.8579 98.763 98.0697 
47.6763 96.327 95.2811 47.8378 97.4958 96.1897 48.0857 98.6324 97.3137 
48.433 99.5892 98.5572 47.975 96.5807 94.6732 48.1226 97.5622 95.526 
48.3884 98.5872 96.5971 48.7241 99.5173 97.846 49.2099 100.276 99.1606 
48.3846 97.009 94.0498 48.4531 97.7994 94.9042 48.7464 98.6459 95.934 
49.0832 99.5106 97.1764 49.5549 100.26 98.4965 50.0711 100.919 99.8079 
48.8451 97.5028 93.3866 48.839 98.1315 94.2925 49.0865 98.8163 95.3047 
49.4738 99.5524 96.5619 49.904 100.296 97.8835 50.4212 100.941 99.185 
50.8969 101.515 100.418 49.2223 98.0545 92.7665 49.2205 98.5262 93.7182 
49.401 99.1026 94.7074 49.817 99.6999 95.9318 50.278 100.355 97.3023 
50.7726 100.981 98.5947 51.2918 101.513 99.8326 51.7863 101.959 100.973 
49.648 99.6169 92.64 49.9426 100.603 93.2155 49.8892 99.9373 93.6678 
50.3472 101.562 94.0132 50.4214 100.866 94.307 50.309 100.338 94.7473 
50.795 102.466 94.9669 51.0111 101.791 95.1472 51.0173 101.175 95.4996 
50.8515 100.77 96.0358 51.2061 103.302 96.0042 51.5625 102.727 96.1306 
51.7307 102.066 96.4092 51.6549 101.549 96.8764 51.449 101.231 97.4563 
51.6102 104.011 97.0314 52.0725 103.582 97.1522 52.4312 102.995 97.3518 
52.5128 102.379 97.7181 52.3741 101.943 98.2412 52.1101 101.686 98.7935 
51.9922 104.624 98.0073 52.5088 104.279 98.165 53.0247 103.822 98.3189 
53.3549 103.217 98.5324 53.3477 102.64 98.9493 53.1454 102.271 99.5203 
52.7687 102.051 100.036 52.2872 105.152 98.925 52.8401 104.852 99.1064 
53.4142 104.485 99.2678 53.9432 103.967 99.386 54.174 103.333 99.6369 
54.0937 102.813 100.135 53.7954 102.503 100.705 53.3106 102.334 101.153 
54.5566 102.802 103.012 54.9909 103.081 102.621 55.2455 103.203 103.943 
55.2377 103.534 102.104 55.6033 103.644 103.515 55.8215 103.745 104.849 
55.2277 104.166 101.602 55.6881 104.274 103.014 56.1021 104.329 104.391 
56.2315 104.404 105.747 54.9196 104.797 101.286 55.4584 104.969 102.585 
55.9863 105.082 103.926 56.3899 105.157 105.275 56.4288 105.218 106.699 
54.3918 105.255 101.085 55.0167 105.503 102.261 55.5668 105.725 103.544 
56.1144 105.928 104.791 56.4411 106.08 106.192 56.4005 106.078 107.582 
[...]
POINT_DATA 1002
SCALARS Color_Map_Phi float
LOOKUP_TABLE default
6.28319 3.14159 6.28319 3.14159 4.71239 4.71239 1.5708 1.5708 3.69517 
5.72961 2.58802 0.553574 6.28319 6.28319 6.28319 6.28319 3.14159 3.14159 
3.14159 3.14159 3.14159 6.1053 5.8988 5.67687 5.45995 5.26596 5.10322 
4.97131 4.86569 4.78095 0.177881 0.384387 0.606312 0.823235 1.01722 1.17997 
1.31187 1.4175 1.50223 6.18928 6.10703 6.03531 5.97283 5.91832 5.87061 
5.82869 5.79168 5.75886 0.0939024 0.176153 0.247873 0.310351 0.364864 0.412573 
0.454497 0.491504 0.524326 3.31947 3.52598 3.7479 3.96483 4.15881 4.32156 
4.45346 4.55909 4.64383 2.96371 2.75721 2.53528 2.31836 2.12437 1.96162 
1.82972 1.72409 1.63936 3.2355 3.31775 3.38947 3.45194 3.50646 3.55417 
3.59609 3.6331 3.66592 3.04769 2.96544 2.89372 2.83124 2.77673 2.72902 
2.6871 2.65009 2.61727 6.28319 6.28319 6.28319 6.28319 3.14159 3.14159 
3.14159 3.14159 3.14159 6.1053 5.8988 5.67687 5.45995 5.26596 5.10322 
4.97131 4.86569 4.78095 0.177881 0.384387 0.606312 0.823235 1.01722 1.17997 
1.31187 1.4175 1.50223 6.18928 6.10703 6.03531 5.97283 5.91832 5.87061 
5.82869 5.79168 5.75886 0.0939024 0.176153 0.247873 0.310351 0.364864 0.412573 
0.454497 0.491504 0.524326 3.31947 3.52598 3.7479 3.96483 4.15881 4.32156 
4.45346 4.55909 4.64383 2.96371 2.75721 2.53528 2.31836 2.12437 1.96162 
1.82972 1.72409 1.63936 3.2355 3.31775 3.38947 3.45194 3.50646 3.55417 
3.59609 3.6331 3.66592 3.04769 2.96544 2.89372 2.83124 2.77673 2.72902 
2.6871 2.65009 2.61727 4.71239 4.71239 4.71239 4.71239 4.71239 4.71239 
4.71239 4.71239 4.71239 4.60879 4.49914 4.3857 4.27128 4.15881 4.05096 
3.94976 3.85646 3.77161 4.81599 4.92564 5.03907 5.1535 5.26596 5.37381 
5.47502 5.56831 5.65317 4.60879 4.49914 4.3857 4.27128 4.15881 4.05096 
3.94976 3.85646 3.77161 4.81599 4.92564 5.03907 5.1535 5.26596 5.37381 
5.47502 5.56831 5.65317 1.5708 1.5708 1.5708 1.5708 1.5708 1.5708 
1.5708 1.5708 1.5708 1.6744 1.78405 1.89748 2.01191 2.12437 2.23222 
2.33343 2.42672 2.51157 1.4672 1.35755 1.24411 1.12969 1.01722 0.909371 
0.808166 0.714871 0.63002 1.6744 1.78405 1.89748 2.01191 2.12437 2.23222 
2.33343 2.42672 2.51157 1.4672 1.35755 1.24411 1.12969 1.01722 0.909371 
0.808166 0.714871 0.63002 3.60077 3.49669 3.38395 3.26458 3.14159 3.01861 
2.89924 2.78649 2.68241 5.82401 5.92808 6.04083 6.1602 6.28319 0.122983 
0.242354 0.355101 0.459179 6.05603 5.78856 5.97021 5.51259 5.60297 5.78856 
5.26596 5.26596 5.26596 5.26596 5.06749 5.0121 4.91556 4.71239 4.15881 
4.91556 4.83537 4.71239 4.50922 4.15881 3.63622 4.80045 4.71239 4.58941 
4.41268 4.15881 3.82181 3.45456 4.71239 4.62433 4.50922 4.35729 4.15881 
3.91219 3.63622 3.36875 6.01742 5.94343 5.82633 5.88092 5.76745 5.62798 
5.8278 5.71897 5.58911 5.43724 5.78235 5.67854 5.55757 5.41926 5.26596 
5.74316 5.64441 5.5315 5.40467 5.26596 5.11955 5.70914 5.61528 5.50962 
5.3926 5.26596 5.13292 4.99789 5.67937 5.59016 5.49102 5.38246 5.26596 
5.14407 5.02016 4.89798 5.56831 5.47502 5.47502 5.37381 5.37381 5.37381 
5.26596 5.26596 5.26596 5.26596 5.1535 5.1535 5.1535 5.1535 5.1535 
5.03907 5.03907 5.03907 5.03907 5.03907 5.03907 4.92564 4.92564 4.92564 
4.92564 4.92564 4.92564 4.92564 4.81599 4.81599 4.81599 4.81599 4.81599 
4.81599 4.81599 4.81599 4.60879 4.60879 4.49914 4.60879 4.49914 4.3857 
4.60879 4.49914 4.3857 4.27128 4.60879 4.49914 4.3857 4.27128 4.15881 
4.60879 4.49914 4.3857 4.27128 4.15881 4.05096 4.60879 4.49914 4.3857 
4.27128 4.15881 4.05096 3.94976 4.60879 4.49914 4.3857 4.27128 4.15881 
4.05096 3.94976 3.85646 4.5268 4.40462 4.42689 4.28071 4.29185 4.30523 
4.15881 4.15881 4.15881 4.15881 4.04232 4.03217 4.02011 4.00552 3.98753 
3.93376 3.91515 3.89328 3.86721 3.83566 3.7968 3.83461 3.8095 3.78037 
3.74624 3.70581 3.65733 3.59845 3.7454 3.71564 3.68161 3.64243 3.59698 
3.54386 3.48135 3.40735 3.56428 3.45246 3.52338 3.33203 3.40312 3.47739 
3.20576 3.27463 3.34802 3.42551 3.07742 3.14159 3.21128 3.28647 3.36688 
2.95116 3.00855 3.0719 3.14159 3.21784 3.3006 2.83072 2.88006 2.93517 
2.99672 3.06535 3.14159 3.22575 2.7189 2.7598 2.8058 2.85768 2.9163 
2.98259 3.05743 3.14159 3.56428 3.52338 3.45246 3.47739 3.40312 3.33203 
3.42551 3.34802 3.27463 3.20576 3.36688 3.28647 3.21128 3.14159 3.07742 
3.3006 3.21784 3.14159 3.0719 3.00855 2.95116 3.22575 3.14159 3.06535 
2.99672 2.93517 2.88006 2.83072 3.14159 3.05743 2.98259 2.9163 2.85768 
2.8058 2.7598 2.7189 4.5268 4.42689 4.40462 4.30523 4.29185 4.28071 
4.15881 4.15881 4.15881 4.15881 3.98753 4.00552 4.02011 4.03217 4.04232 
3.7968 3.83566 3.86721 3.89328 3.91515 3.93376 3.59845 3.65733 3.70581 
3.74624 3.78037 3.8095 3.83461 3.40735 3.48135 3.54386 3.59698 3.64243 
3.68161 3.71564 3.7454 4.71239 4.80045 4.62433 4.91556 4.71239 4.50922 
5.06749 4.83537 4.58941 4.35729 5.26596 5.0121 4.71239 4.41268 4.15881 
5.51259 5.26596 4.91556 4.50922 4.15881 3.91219 5.78856 5.60297 5.26596 
4.71239 4.15881 3.82181 3.63622 6.05603 5.97021 5.78856 5.26596 4.15881 
3.63622 3.45456 3.36875 0.227158 0.494626 0.312971 0.770593 0.680215 0.494626 
1.01722 1.01722 1.01722 1.01722 1.2157 1.27109 1.36763 1.5708 2.12437 
1.36763 1.44781 1.5708 1.77397 2.12437 2.64697 1.48273 1.5708 1.69378 
1.8705 2.12437 2.46138 2.82862 1.5708 1.65886 1.77397 1.9259 2.12437 
2.371 2.64697 2.91443 1.75639 1.87857 1.8563 2.00248 1.99133 1.97796 
2.12437 2.12437 2.12437 2.12437 2.24087 2.25101 2.26308 2.27767 2.29565 
2.34943 2.36803 2.38991 2.41597 2.44752 2.48639 2.44857 2.47368 2.50281 
2.53694 2.57738 2.62586 2.68474 2.53778 2.56754 2.60157 2.64076 2.68621 
2.73933 2.80184 2.87583 1.6744 1.6744 1.78405 1.6744 1.78405 1.89748 
1.6744 1.78405 1.89748 2.01191 1.6744 1.78405 1.89748 2.01191 2.12437 
1.6744 1.78405 1.89748 2.01191 2.12437 2.23222 1.6744 1.78405 1.89748 
2.01191 2.12437 2.23222 2.33343 1.6744 1.78405 1.89748 2.01191 2.12437 
2.23222 2.33343 2.42672 1.4672 1.35755 1.4672 1.24411 1.35755 1.4672 
1.12969 1.24411 1.35755 1.4672 1.01722 1.12969 1.24411 1.35755 1.4672 
0.909371 1.01722 1.12969 1.24411 1.35755 1.4672 0.808166 0.909371 1.01722 
1.12969 1.24411 1.35755 1.4672 0.714871 0.808166 0.909371 1.01722 1.12969 
1.24411 1.35755 1.4672 0.603812 0.57405 0.693022 0.540021 0.667908 0.792164 
0.500837 0.638778 0.773562 0.900726 0.455383 0.604649 0.751687 0.890581 1.01722 
0.402264 0.564217 0.725619 0.878514 1.01722 1.13912 0.339753 0.515737 0.694072 
0.863926 1.01722 1.15026 1.26302 0.265762 0.456853 0.655207 0.845941 1.01722 
1.16363 1.28529 1.38521 0.227158 0.312971 0.494626 0.494626 0.680215 0.770593 
1.01722 1.01722 1.01722 1.01722 2.12437 1.5708 1.36763 1.27109 1.2157 
2.64697 2.12437 1.77397 1.5708 1.44781 1.36763 2.82862 2.46138 2.12437 
1.8705 1.69378 1.5708 1.48273 2.91443 2.64697 2.371 2.12437 1.9259 
1.77397 1.65886 1.5708 1.75639 1.8563 1.87857 1.97796 1.99133 2.00248 
2.12437 2.12437 2.12437 2.12437 2.29565 2.27767 2.26308 2.25101 2.24087 
2.48639 2.44752 2.41597 2.38991 2.36803 2.34943 2.68474 2.62586 2.57738 
2.53694 2.50281 2.47368 2.44857 2.87583 2.80184 2.73933 2.68621 2.64076 
2.60157 2.56754 2.53778 5.86049 5.90139 5.97231 5.94739 6.02165 6.09275 
5.99927 6.07676 6.15015 6.21902 6.0579 6.13831 6.2135 0 0.0641696 
6.12418 6.20694 6.28319 0.069689 0.13304 0.190437 6.19903 0 0.0762451 
0.144876 0.206423 0.261531 0.310872 0 0.0841597 0.159004 0.225289 0.283913 
0.335793 0.381792 0.422692 5.86049 5.97231 5.90139 6.09275 6.02165 5.94739 
6.21902 6.15015 6.07676 5.99927 0.0641696 0 6.2135 6.13831 6.0579 
0.190437 0.13304 0.069689 6.28319 6.20694 6.12418 0.310872 0.261531 0.206423 
0.144876 0.0762451 6.28319 6.19903 0.422692 0.381792 0.335793 0.283913 0.225289 
0.159004 0.0841597 0 5.67937 5.70914 5.59016 5.74316 5.61528 5.49102 
5.78235 5.64441 5.50962 5.38246 5.8278 5.67854 5.5315 5.3926 5.26596 
5.88092 5.71897 5.55757 5.40467 5.26596 5.14407 5.94343 5.76745 5.58911 
5.41926 5.26596 5.13292 5.02016 6.01742 5.82633 5.62798 5.43724 5.26596 
5.11955 4.99789 4.89798 1.38521 1.28529 1.26302 1.16363 1.15026 1.13912 
1.01722 1.01722 1.01722 1.01722 0.845941 0.863926 0.878514 0.890581 0.900726 
0.655207 0.694072 0.725619 0.751687 0.773562 0.792164 0.456853 0.515737 0.564217 
0.604649 0.638778 0.667908 0.693022 0.265762 0.339753 0.402264 0.455383 0.500837 
0.540021 0.57405 0.603812 
