# vtk DataFile Version 4.1
vtk output
ASCII
DATASET POLYDATA
POINTS 1002 float
46.6835 96.1255 96.0064 49.7023 99.1376 105.196 43.3103 103.196 93.9669 
44.7457 106.385 102.829 52.5345 100.934 98.6752 49.7145 105.129 96.9414 
41.3114 96.7386 104.082 38.5153 101.711 102.046 53.2713 105.07 105.227 
48.024 99.8997 90.7548 43.6041 102.457 108.392 42.1642 97.1983 94.6724 
46.6114 96.8506 96.6196 46.5806 97.6089 97.3639 46.6181 98.2917 98.2376 
46.7395 98.8248 99.3353 47.0347 99.1273 100.672 47.5795 99.1518 101.913 
48.2251 99.0871 102.848 48.8253 99.0338 103.671 49.3243 99.0327 104.473 
47.0444 96.5977 96.0189 47.4626 97.1287 96.0887 47.8952 97.7354 96.2149 
48.3731 98.4056 96.3903 49.0063 98.9635 96.6879 49.7363 99.4176 97.0863 
50.5149 99.842 97.5211 51.2816 100.221 97.9819 51.9803 100.565 98.39 
46.295 96.1631 96.408 45.9112 96.2828 96.9658 45.4627 96.4939 97.6683 
44.9153 96.7306 98.4551 44.3666 96.8849 99.4027 43.8163 96.918 100.53 
43.2006 96.8483 101.669 42.5508 96.7036 102.671 41.9037 96.6289 103.493 
46.9531 95.739 95.4312 47.2669 95.3814 94.8387 47.667 95.1276 94.2078 
48.0926 95.1681 93.577 48.3348 95.6361 92.9538 48.2575 96.5209 92.3921 
48.1215 97.5225 91.9335 48.0691 98.4422 91.5321 48.0465 99.2117 91.1348 
46.5167 95.4158 95.6936 46.2876 94.665 95.4239 45.8668 93.9734 95.1609 
45.2317 93.6498 94.8447 44.5722 93.9495 94.4966 44.0215 94.6377 94.2812 
43.5133 95.3796 94.2807 42.9883 96.0524 94.4013 42.5292 96.648 94.523 
50.2328 99.3018 104.769 50.8109 99.5008 104.27 51.4217 99.6489 103.687 
51.9178 99.8067 103.033 52.269 100.033 102.368 52.5162 100.252 101.668 
52.6424 100.418 100.887 52.6812 100.58 100.095 52.6331 100.774 99.3725 
48.9783 98.8751 105.186 48.2137 98.576 105.166 47.3867 98.2742 105.123 
46.451 98.0489 105.055 45.4165 97.8741 104.95 44.433 97.6186 104.823 
43.5288 97.318 104.681 42.7006 97.0274 104.532 41.9599 96.8221 104.333 
50.3339 99.4635 105.587 50.9761 99.9318 105.862 51.6333 100.471 106.057 
52.3025 101.03 106.242 52.9595 101.669 106.378 53.4523 102.469 106.383 
53.6485 103.274 106.225 53.6001 103.93 105.913 53.4361 104.511 105.548 
49.4861 99.2196 105.82 49.1175 99.4262 106.379 48.6399 99.7173 106.884 
48.0803 100.063 107.346 47.4355 100.411 107.797 46.7421 100.714 108.194 
45.9762 101.068 108.408 45.1068 101.542 108.448 44.2571 102.049 108.439 
43.3774 103.491 94.7813 43.4217 103.858 95.6455 43.4497 104.326 96.5201 
43.5333 104.759 97.4801 43.6774 105.101 98.5267 43.8265 105.493 99.4933 
44.0398 105.823 100.402 44.2839 106.046 101.298 44.5105 106.232 102.122 
43.7268 103.499 93.7633 44.221 103.823 93.6288 44.7605 104.158 93.6183 
45.3746 104.486 93.7349 46.1574 104.727 94.0259 46.9955 104.854 94.5495 
47.7463 104.943 95.1875 48.4379 105.02 95.8119 49.097 105.079 96.4066 
42.9674 103.077 94.7241 42.5467 102.953 95.5587 42.0349 102.824 96.4223 
41.5143 102.7 97.3333 40.957 102.566 98.2647 40.3758 102.394 99.1478 
39.8537 102.197 99.9752 39.3558 102.011 100.736 38.8789 101.846 101.424 
43.5157 103.05 93.0563 43.8205 102.844 92.1563 44.1299 102.663 91.1892 
44.3973 102.515 90.2099 44.8737 102.247 89.5875 45.6381 101.831 89.5386 
46.3934 101.381 89.8455 46.9855 100.922 90.2096 47.5164 100.416 90.513 
43.0224 102.804 93.6483 42.7282 102.332 93.4122 42.4329 101.811 93.269 
42.1371 101.204 93.2074 41.8814 100.459 93.2442 41.7649 99.6386 93.4189 
41.8007 98.8915 93.7277 41.9155 98.2561 94.0742 42.0406 97.6984 94.3843 
45.3183 106.535 102.316 45.9374 106.645 101.757 46.5549 106.714 101.095 
47.16 106.765 100.327 47.772 106.751 99.5677 48.3808 106.563 98.9206 
48.9115 106.239 98.3611 49.2937 105.893 97.8364 49.5405 105.516 97.3617 
44.0175 106.137 102.914 43.2598 105.853 102.962 42.4829 105.5 102.927 
41.727 105.035 102.838 40.9986 104.525 102.751 40.3062 103.994 102.631 
39.7017 103.429 102.485 39.2228 102.84 102.347 38.8449 102.249 102.201 
45.3995 106.58 103.194 46.1512 106.74 103.608 47.0006 106.843 104.043 
48.0619 106.851 104.397 49.2595 106.745 104.629 50.3493 106.534 104.82 
51.3081 106.263 105.005 52.1378 105.95 105.156 52.7883 105.557 105.227 
44.5648 106.315 103.568 44.4141 106.147 104.356 44.2526 105.911 105.134 
44.0998 105.586 105.868 43.9859 105.165 106.535 43.9024 104.662 107.07 
43.8392 104.102 107.502 43.7664 103.55 107.905 43.6645 103.04 108.226 
52.7257 101.298 98.3795 52.8568 101.759 98.027 52.8785 102.347 97.7089 
52.7055 103.006 97.4833 52.3473 103.608 97.31 51.8745 104.077 97.1652 
51.3258 104.423 97.0753 50.7437 104.693 97.0357 50.2029 104.918 96.9975 
53.108 101.223 99.2971 53.6812 101.529 99.9308 54.2561 101.892 100.652 
54.7405 102.394 101.348 55.011 103.084 102.077 55.0719 103.812 103.042 
54.9137 104.302 103.983 54.4368 104.551 104.54 53.831 104.797 104.909 
52.1176 100.817 97.7928 51.7084 100.645 96.747 51.3304 100.423 95.6439 
50.943 100.171 94.5384 50.5588 99.9376 93.3834 50.2996 99.7747 92.2981 
50.0415 99.665 91.4418 49.5412 99.6305 90.9131 48.8009 99.7332 90.7436 
50.2492 105.422 97.6927 50.8077 105.701 98.4749 51.3605 105.933 99.3281 
51.9556 106.159 100.19 52.5648 106.318 101.025 53.0448 106.267 102.008 
53.3356 106.061 103.12 53.4396 105.798 104.046 53.4002 105.456 104.711 
49.4951 104.709 96.1867 49.278 104.303 95.3145 49.0982 103.865 94.3402 
48.9321 103.349 93.3408 48.7834 102.829 92.3755 48.7884 102.345 91.4126 
48.8976 101.795 90.5867 48.812 101.15 90.2464 48.4648 100.495 90.3976 
40.54 96.9384 104.145 39.7029 97.2655 104.119 38.8506 97.5831 104.065 
38.1146 97.95 103.951 37.5788 98.5526 103.751 37.3178 99.3634 103.469 
37.4058 100.15 103.12 37.7582 100.772 102.731 38.1498 101.272 102.36 
41.1272 97.0061 104.711 41.0261 97.4397 105.26 41.0677 97.9528 105.817 
41.2547 98.4959 106.408 41.5175 99.0783 106.964 41.8062 99.7257 107.474 
42.1584 100.379 107.957 42.5902 101.05 108.28 43.0874 101.77 108.39 
41.0408 96.6417 103.449 40.8312 96.7066 102.647 40.8173 96.8877 101.703 
40.9644 97.0398 100.636 41.146 96.9942 99.4392 41.3806 96.8962 98.2075 
41.6249 96.8797 97.113 41.816 96.9139 96.199 42.0024 97.0122 95.3778 
38.4413 101.879 102.83 38.4949 102.026 103.739 38.7142 102.127 104.674 
39.1132 102.211 105.5 39.6752 102.308 106.262 40.378 102.343 106.93 
41.1917 102.323 107.445 42.0121 102.338 107.883 42.7956 102.401 108.225 
38.4342 101.293 101.484 38.4317 100.895 100.792 38.5504 100.452 99.9867 
38.8325 99.9026 99.181 39.2832 99.3181 98.3892 39.8784 98.8102 97.5936 
40.5416 98.3874 96.8313 41.1595 97.9925 96.0432 41.7037 97.5938 95.2954 
52.7972 105.021 105.74 52.1976 104.961 106.276 51.3757 104.808 106.755 
50.3399 104.538 107.141 49.2032 104.229 107.468 48.0548 103.934 107.814 
46.927 103.648 108.137 45.7675 103.315 108.319 44.6082 102.898 108.376 
47.3028 99.588 90.9414 46.6404 99.1458 90.989 45.9763 98.6415 91.0925 
45.2205 98.1777 91.3873 44.4024 97.7152 91.6052 43.6027 97.2583 91.7597 
43.017 96.9961 92.2633 42.7134 96.986 93.0774 42.4759 97.0891 93.9066 
47.0311 97.3369 96.7109 47.4668 97.8859 96.8434 47.0245 98.1021 97.5061 
47.9105 98.5335 96.9885 47.4947 98.6473 97.6861 47.0904 98.7651 98.4596 
48.5399 99.1151 97.2682 48.0917 99.199 97.9635 47.6916 99.2201 98.8052 
47.3057 99.2371 99.7159 49.3555 99.506 97.7495 48.9255 99.5985 98.4555 
48.5397 99.5668 99.2854 48.1439 99.5107 100.181 47.7869 99.4026 101.074 
50.2322 99.8281 98.2733 49.8642 99.8538 99.0497 49.5444 99.7844 99.8476 
49.2582 99.6287 100.644 48.8508 99.5273 101.445 48.4993 99.3412 102.193 
51.1231 100.137 98.7391 50.8576 100.104 99.5406 50.5738 100.033 100.322 
50.3899 99.784 101.034 50.0934 99.5869 101.761 49.6359 99.4646 102.461 
49.2013 99.2713 103.089 51.9569 100.436 99.1176 51.8656 100.31 99.8849 
51.6821 100.232 100.671 51.4919 100.044 101.382 51.2577 99.7643 102.055 
50.8444 99.5945 102.747 50.3063 99.4562 103.385 49.787 99.2493 103.95 
47.327 96.2856 95.3947 47.649 96.0431 94.753 47.7629 96.8961 95.4346 
48.0991 95.8902 94.1067 48.0886 96.772 94.764 48.2495 97.5726 95.5671 
48.628 95.9465 93.4474 48.5384 96.7429 94.109 48.6105 97.5433 94.8791 
48.7916 98.2766 95.7705 48.9565 96.389 92.7297 49.0893 96.8611 93.3943 
49.046 97.6153 94.1836 49.1936 98.2754 95.0722 49.4219 98.8891 96.0518 
48.9583 97.2061 92.064 49.4749 97.2464 92.5882 49.5503 97.7519 93.4243 
49.6266 98.3666 94.3744 49.8437 98.9288 95.3802 50.1229 99.4524 96.4202 
48.8872 98.1248 91.5471 49.6282 97.9099 91.8428 49.9445 98.0914 92.5993 
50.04 98.5639 93.645 50.2527 99.0729 94.7462 50.5281 99.5553 95.7821 
50.8581 99.9649 96.8577 48.8412 98.9864 91.1295 49.6238 98.7799 91.3059 
50.0961 98.7808 91.8891 50.2782 99.0265 92.8779 50.5082 99.3907 94.052 
50.8491 99.762 95.1804 51.1719 100.118 96.2501 51.553 100.39 97.3611 
49.1945 100.422 90.5624 49.3516 101.167 90.7663 49.7509 100.481 91.0713 
49.2769 101.822 91.4615 49.7398 101.277 91.6201 50.1091 100.598 91.8891 
49.2404 102.373 92.3934 49.7007 101.896 92.4943 50.1354 101.352 92.6755 
50.4402 100.654 92.9333 49.3812 102.932 93.3455 49.8346 102.483 93.4371 
50.2958 102.016 93.5899 50.6841 101.427 93.7695 50.8964 100.76 94.0601 
49.5582 103.515 94.3331 50.0356 103.108 94.4021 50.5143 102.695 94.5291 
50.9509 102.181 94.6724 51.26 101.544 94.8678 51.3824 100.923 95.2072 
49.7395 104.027 95.3212 50.2442 103.69 95.3601 50.7599 103.324 95.4439 
51.2316 102.878 95.5685 51.6074 102.289 95.7394 51.8181 101.648 96.0008 
51.8335 101.081 96.3644 49.9674 104.48 96.222 50.5006 104.211 96.249 
51.0677 103.898 96.2921 51.578 103.502 96.3975 51.9967 102.967 96.5657 
52.2791 102.332 96.7878 52.3614 101.72 97.0926 52.2861 101.21 97.4591 
53.2713 101.653 98.9693 53.3537 102.227 98.629 53.8029 102.065 99.6621 
53.2899 102.943 98.3706 53.7957 102.806 99.3959 54.3095 102.616 100.449 
52.9973 103.628 98.2145 53.6032 103.59 99.1897 54.2077 103.499 100.221 
54.7137 103.33 101.153 52.5305 104.171 98.0836 53.1802 104.194 99.058 
53.8894 104.233 100.011 54.5134 104.204 100.944 54.9028 104.057 101.932 
51.9915 104.603 97.9431 52.6231 104.673 98.9313 53.3394 104.775 99.8662 
54.0417 104.862 100.736 54.5413 104.773 101.752 54.8187 104.582 102.915 
[...]
POINT_DATA 1002
SCALARS Color_Map_Phi float
LOOKUP_TABLE default
6.28319 3.14159 6.28319 3.14159 4.71239 4.71239 1.5708 1.5708 3.69517 
5.72961 2.58802 0.553574 6.28319 6.28319 6.28319 6.28319 3.14159 3.14159 
3.14159 3.14159 3.14159 6.1053 5.8988 5.67687 5.45995 5.26596 5.10322 
4.97131 4.86569 4.78095 0.177881 0.384387 0.606312 0.823235 1.01722 1.17997 
1.31187 1.4175 1.50223 6.18928 6.10703 6.03531 5.97283 5.91832 5.87061 
5.82869 5.79168 5.75886 0.0939024 0.176153 0.247873 0.310351 0.364864 0.412573 
0.454497 0.491504 0.524326 3.31947 3.52598 3.7479 3.96483 4.15881 4.32156 
4.45346 4.55909 4.64383 2.96371 2.75721 2.53528 2.31836 2.12437 1.96162 
1.82972 1.72409 1.63936 3.2355 3.31775 3.38947 3.45194 3.50646 3.55417 
3.59609 3.6331 3.66592 3.04769 2.96544 2.89372 2.83124 2.77673 2.72902 
2.6871 2.65009 2.61727 6.28319 6.28319 6.28319 6.28319 3.14159 3.14159 
3.14159 3.14159 3.14159 6.1053 5.8988 5.67687 5.45995 5.26596 5.10322 
4.97131 4.86569 4.78095 0.177881 0.384387 0.606312 0.823235 1.01722 1.17997 
1.31187 1.4175 1.50223 6.18928 6.10703 6.03531 5.97283 5.91832 5.87061 
5.82869 5.79168 5.75886 0.0939024 0.176153 0.247873 0.310351 0.364864 0.412573 
0.454497 0.491504 0.524326 3.31947 3.52598 3.7479 3.96483 4.15881 4.32156 
4.45346 4.55909 4.64383 2.96371 2.75721 2.53528 2.31836 2.12437 1.96162 
1.82972 1.72409 1.63936 3.2355 3.31775 3.38947 3.45194 3.50646 3.55417 
3.59609 3.6331 3.66592 3.04769 2.96544 2.89372 2.83124 2.77673 2.72902 
2.6871 2.65009 2.61727 4.71239 4.71239 4.71239 4.71239 4.71239 4.71239 
4.71239 4.71239 4.71239 4.60879 4.49914 4.3857 4.27128 4.15881 4.05096 
3.94976 3.85646 3.77161 4.81599 4.92564 5.03907 5.1535 5.26596 5.37381 
5.47502 5.56831 5.65317 4.60879 4.49914 4.3857 4.27128 4.15881 4.05096 
3.94976 3.85646 3.77161 4.81599 4.92564 5.03907 5.1535 5.26596 5.37381 
5.47502 5.56831 5.65317 1.5708 1.5708 1.5708 1.5708 1.5708 1.5708 
1.5708 1.5708 1.5708 1.6744 1.78405 1.89748 2.01191 2.12437 2.23222 
2.33343 2.42672 2.51157 1.4672 1.35755 1.24411 1.12969 1.01722 0.909371 
0.808166 0.714871 0.63002 1.6744 1.78405 1.89748 2.01191 2.12437 2.23222 
2.33343 2.42672 2.51157 1.4672 1.35755 1.24411 1.12969 1.01722 0.909371 
0.808166 0.714871 0.63002 3.60077 3.49669 3.38395 3.26458 3.14159 3.01861 
2.89924 2.78649 2.68241 5.82401 5.92808 6.04083 6.1602 6.28319 0.122983 
0.242354 0.355101 0.459179 6.05603 5.78856 5.97021 5.51259 5.60297 5.78856 
5.26596 5.26596 5.26596 5.26596 5.06749 5.0121 4.91556 4.71239 4.15881 
4.91556 4.83537 4.71239 4.50922 4.15881 3.63622 4.80045 4.71239 4.58941 
4.41268 4.15881 3.82181 3.45456 4.71239 4.62433 4.50922 4.35729 4.15881 
3.91219 3.63622 3.36875 6.01742 5.94343 5.82633 5.88092 5.76745 5.62798 
5.8278 5.71897 5.58911 5.43724 5.78235 5.67854 5.55757 5.41926 5.26596 
5.74316 5.64441 5.5315 5.40467 5.26596 5.11955 5.70914 5.61528 5.50962 
5.3926 5.26596 5.13292 4.99789 5.67937 5.59016 5.49102 5.38246 5.26596 
5.14407 5.02016 4.89798 5.56831 5.47502 5.47502 5.37381 5.37381 5.37381 
5.26596 5.26596 5.26596 5.26596 5.1535 5.1535 5.1535 5.1535 5.1535 
5.03907 5.03907 5.03907 5.03907 5.03907 5.03907 4.92564 4.92564 4.92564 
4.92564 4.92564 4.92564 4.92564 4.81599 4.81599 4.81599 4.81599 4.81599 
4.81599 4.81599 4.81599 4.60879 4.60879 4.49914 4.60879 4.49914 4.3857 
4.60879 4.49914 4.3857 4.27128 4.60879 4.49914 4.3857 4.27128 4.15881 
4.60879 4.49914 4.3857 4.27128 4.15881 4.05096 4.60879 4.49914 4.3857 
4.27128 4.15881 4.05096 3.94976 4.60879 4.49914 4.3857 4.27128 4.15881 
4.05096 3.94976 3.85646 4.5268 4.40462 4.42689 4.28071 4.29185 4.30523 
4.15881 4.15881 4.15881 4.15881 4.04232 4.03217 4.02011 4.00552 3.98753 
3.93376 3.91515 3.89328 3.86721 3.83566 3.7968 3.83461 3.8095 3.78037 
3.74624 3.70581 3.65733 3.59845 3.7454 3.71564 3.68161 3.64243 3.59698 
3.54386 3.48135 3.40735 3.56428 3.45246 3.52338 3.33203 3.40312 3.47739 
3.20576 3.27463 3.34802 3.42551 3.07742 3.14159 3.21128 3.28647 3.36688 
2.95116 3.00855 3.0719 3.14159 3.21784 3.3006 2.83072 2.88006 2.93517 
2.99672 3.06535 3.14159 3.22575 2.7189 2.7598 2.8058 2.85768 2.9163 
2.98259 3.05743 3.14159 3.56428 3.52338 3.45246 3.47739 3.40312 3.33203 
3.42551 3.34802 3.27463 3.20576 3.36688 3.28647 3.21128 3.14159 3.07742 
3.3006 3.21784 3.14159 3.0719 3.00855 2.95116 3.22575 3.14159 3.06535 
2.99672 2.93517 2.88006 2.83072 3.14159 3.05743 2.98259 2.9163 2.85768 
2.8058 2.7598 2.7189 4.5268 4.42689 4.40462 4.30523 4.29185 4.28071 
4.15881 4.15881 4.15881 4.15881 3.98753 4.00552 4.02011 4.03217 4.04232 
3.7968 3.83566 3.86721 3.89328 3.91515 3.93376 3.59845 3.65733 3.70581 
3.74624 3.78037 3.8095 3.83461 3.40735 3.48135 3.54386 3.59698 3.64243 
3.68161 3.71564 3.7454 4.71239 4.80045 4.62433 4.91556 4.71239 4.50922 
5.06749 4.83537 4.58941 4.35729 5.26596 5.0121 4.71239 4.41268 4.15881 
5.51259 5.26596 4.91556 4.50922 4.15881 3.91219 5.78856 5.60297 5.26596 
4.71239 4.15881 3.82181 3.63622 6.05603 5.97021 5.78856 5.26596 4.15881 
3.63622 3.45456 3.36875 0.227158 0.494626 0.312971 0.770593 0.680215 0.494626 
1.01722 1.01722 1.01722 1.01722 1.2157 1.27109 1.36763 1.5708 2.12437 
1.36763 1.44781 1.5708 1.77397 2.12437 2.64697 1.48273 1.5708 1.69378 
1.8705 2.12437 2.46138 2.82862 1.5708 1.65886 1.77397 1.9259 2.12437 
2.371 2.64697 2.91443 1.75639 1.87857 1.8563 2.00248 1.99133 1.97796 
2.12437 2.12437 2.12437 2.12437 2.24087 2.25101 2.26308 2.27767 2.29565 
2.34943 2.36803 2.38991 2.41597 2.44752 2.48639 2.44857 2.47368 2.50281 
2.53694 2.57738 2.62586 2.68474 2.53778 2.56754 2.60157 2.64076 2.68621 
2.73933 2.80184 2.87583 1.6744 1.6744 1.78405 1.6744 1.78405 1.89748 
1.6744 1.78405 1.89748 2.01191 1.6744 1.78405 1.89748 2.01191 2.12437 
1.6744 1.78405 1.89748 2.01191 2.12437 2.23222 1.6744 1.78405 1.89748 
2.01191 2.12437 2.23222 2.33343 1.6744 1.78405 1.89748 2.01191 2.12437 
2.23222 2.33343 2.42672 1.4672 1.35755 1.4672 1.24411 1.35755 1.4672 
1.12969 1.24411 1.35755 1.4672 1.01722 1.12969 1.24411 1.35755 1.4672 
0.909371 1.01722 1.12969 1.24411 1.35755 1.4672 0.808166 0.909371 1.01722 
1.12969 1.24411 1.35755 1.4672 0.714871 0.808166 0.909371 1.01722 1.12969 
1.24411 1.35755 1.4672 0.603812 0.57405 0.693022 0.540021 0.667908 0.792164 
0.500837 0.638778 0.773562 0.900726 0.455383 0.604649 0.751687 0.890581 1.01722 
0.402264 0.564217 0.725619 0.878514 1.01722 1.13912 0.339753 0.515737 0.694072 
0.863926 1.01722 1.15026 1.26302 0.265762 0.456853 0.655207 0.845941 1.01722 
1.16363 1.28529 1.38521 0.227158 0.312971 0.494626 0.494626 0.680215 0.770593 
1.01722 1.01722 1.01722 1.01722 2.12437 1.5708 1.36763 1.27109 1.2157 
2.64697 2.12437 1.77397 1.5708 1.44781 1.36763 2.82862 2.46138 2.12437 
1.8705 1.69378 1.5708 1.48273 2.91443 2.64697 2.371 2.12437 1.9259 
1.77397 1.65886 1.5708 1.75639 1.8563 1.87857 1.97796 1.99133 2.00248 
2.12437 2.12437 2.12437 2.12437 2.29565 2.27767 2.26308 2.25101 2.24087 
2.48639 2.44752 2.41597 2.38991 2.36803 2.34943 2.68474 2.62586 2.57738 
2.53694 2.50281 2.47368 2.44857 2.87583 2.80184 2.73933 2.68621 2.64076 
2.60157 2.56754 2.53778 5.86049 5.90139 5.97231 5.94739 6.02165 6.09275 
5.99927 6.07676 6.15015 6.21902 6.0579 6.13831 6.2135 0 0.0641696 
6.12418 6.20694 6.28319 0.069689 0.13304 0.190437 6.19903 0 0.0762451 
0.144876 0.206423 0.261531 0.310872 0 0.0841597 0.159004 0.225289 0.283913 
0.335793 0.381792 0.422692 5.86049 5.97231 5.90139 6.09275 6.02165 5.94739 
6.21902 6.15015 6.07676 5.99927 0.0641696 0 6.2135 6.13831 6.0579 
0.190437 0.13304 0.069689 6.28319 6.20694 6.12418 0.310872 0.261531 0.206423 
0.144876 0.0762451 6.28319 6.19903 0.422692 0.381792 0.335793 0.283913 0.225289 
0.159004 0.0841597 0 5.67937 5.70914 5.59016 5.74316 5.61528 5.49102 
5.78235 5.64441 5.50962 5.38246 5.8278 5.67854 5.5315 5.3926 5.26596 
5.88092 5.71897 5.55757 5.40467 5.26596 5.14407 5.94343 5.76745 5.58911 
5.41926 5.26596 5.13292 5.02016 6.01742 5.82633 5.62798 5.43724 5.26596 
5.11955 4.99789 4.89798 1.38521 1.28529 1.26302 1.16363 1.15026 1.13912 
1.01722 1.01722 1.01722 1.01722 0.845941 0.863926 0.878514 0.890581 0.900726 
0.655207 0.694072 0.725619 0.751687 0.773562 0.792164 0.456853 0.515737 0.564217 
0.604649 0.638778 0.667908 0.693022 0.265762 0.339753 0.402264 0.455383 0.500837 
0.540021 0.57405 0.603812 
